# vtk DataFile Version 3.0
3d incompressible NS problem
ASCII
DATASET STRUCTURED_GRID
DIMENSIONS 10 10 10
POINTS 1000 float
0.05 0.05 0.05
0.05 0.05 0.15
0.05 0.05 0.25
0.05 0.05 0.35
0.05 0.05 0.45
0.05 0.05 0.55
0.05 0.05 0.65
0.05 0.05 0.75
0.05 0.05 0.85
0.05 0.05 0.95
0.05 0.15 0.05
0.05 0.15 0.15
0.05 0.15 0.25
0.05 0.15 0.35
0.05 0.15 0.45
0.05 0.15 0.55
0.05 0.15 0.65
0.05 0.15 0.75
0.05 0.15 0.85
0.05 0.15 0.95
0.05 0.25 0.05
0.05 0.25 0.15
0.05 0.25 0.25
0.05 0.25 0.35
0.05 0.25 0.45
0.05 0.25 0.55
0.05 0.25 0.65
0.05 0.25 0.75
0.05 0.25 0.85
0.05 0.25 0.95
0.05 0.35 0.05
0.05 0.35 0.15
0.05 0.35 0.25
0.05 0.35 0.35
0.05 0.35 0.45
0.05 0.35 0.55
0.05 0.35 0.65
0.05 0.35 0.75
0.05 0.35 0.85
0.05 0.35 0.95
0.05 0.45 0.05
0.05 0.45 0.15
0.05 0.45 0.25
0.05 0.45 0.35
0.05 0.45 0.45
0.05 0.45 0.55
0.05 0.45 0.65
0.05 0.45 0.75
0.05 0.45 0.85
0.05 0.45 0.95
0.05 0.55 0.05
0.05 0.55 0.15
0.05 0.55 0.25
0.05 0.55 0.35
0.05 0.55 0.45
0.05 0.55 0.55
0.05 0.55 0.65
0.05 0.55 0.75
0.05 0.55 0.85
0.05 0.55 0.95
0.05 0.65 0.05
0.05 0.65 0.15
0.05 0.65 0.25
0.05 0.65 0.35
0.05 0.65 0.45
0.05 0.65 0.55
0.05 0.65 0.65
0.05 0.65 0.75
0.05 0.65 0.85
0.05 0.65 0.95
0.05 0.75 0.05
0.05 0.75 0.15
0.05 0.75 0.25
0.05 0.75 0.35
0.05 0.75 0.45
0.05 0.75 0.55
0.05 0.75 0.65
0.05 0.75 0.75
0.05 0.75 0.85
0.05 0.75 0.95
0.05 0.85 0.05
0.05 0.85 0.15
0.05 0.85 0.25
0.05 0.85 0.35
0.05 0.85 0.45
0.05 0.85 0.55
0.05 0.85 0.65
0.05 0.85 0.75
0.05 0.85 0.85
0.05 0.85 0.95
0.05 0.95 0.05
0.05 0.95 0.15
0.05 0.95 0.25
0.05 0.95 0.35
0.05 0.95 0.45
0.05 0.95 0.55
0.05 0.95 0.65
0.05 0.95 0.75
0.05 0.95 0.85
0.05 0.95 0.95
0.15 0.05 0.05
0.15 0.05 0.15
0.15 0.05 0.25
0.15 0.05 0.35
0.15 0.05 0.45
0.15 0.05 0.55
0.15 0.05 0.65
0.15 0.05 0.75
0.15 0.05 0.85
0.15 0.05 0.95
0.15 0.15 0.05
0.15 0.15 0.15
0.15 0.15 0.25
0.15 0.15 0.35
0.15 0.15 0.45
0.15 0.15 0.55
0.15 0.15 0.65
0.15 0.15 0.75
0.15 0.15 0.85
0.15 0.15 0.95
0.15 0.25 0.05
0.15 0.25 0.15
0.15 0.25 0.25
0.15 0.25 0.35
0.15 0.25 0.45
0.15 0.25 0.55
0.15 0.25 0.65
0.15 0.25 0.75
0.15 0.25 0.85
0.15 0.25 0.95
0.15 0.35 0.05
0.15 0.35 0.15
0.15 0.35 0.25
0.15 0.35 0.35
0.15 0.35 0.45
0.15 0.35 0.55
0.15 0.35 0.65
0.15 0.35 0.75
0.15 0.35 0.85
0.15 0.35 0.95
0.15 0.45 0.05
0.15 0.45 0.15
0.15 0.45 0.25
0.15 0.45 0.35
0.15 0.45 0.45
0.15 0.45 0.55
0.15 0.45 0.65
0.15 0.45 0.75
0.15 0.45 0.85
0.15 0.45 0.95
0.15 0.55 0.05
0.15 0.55 0.15
0.15 0.55 0.25
0.15 0.55 0.35
0.15 0.55 0.45
0.15 0.55 0.55
0.15 0.55 0.65
0.15 0.55 0.75
0.15 0.55 0.85
0.15 0.55 0.95
0.15 0.65 0.05
0.15 0.65 0.15
0.15 0.65 0.25
0.15 0.65 0.35
0.15 0.65 0.45
0.15 0.65 0.55
0.15 0.65 0.65
0.15 0.65 0.75
0.15 0.65 0.85
0.15 0.65 0.95
0.15 0.75 0.05
0.15 0.75 0.15
0.15 0.75 0.25
0.15 0.75 0.35
0.15 0.75 0.45
0.15 0.75 0.55
0.15 0.75 0.65
0.15 0.75 0.75
0.15 0.75 0.85
0.15 0.75 0.95
0.15 0.85 0.05
0.15 0.85 0.15
0.15 0.85 0.25
0.15 0.85 0.35
0.15 0.85 0.45
0.15 0.85 0.55
0.15 0.85 0.65
0.15 0.85 0.75
0.15 0.85 0.85
0.15 0.85 0.95
0.15 0.95 0.05
0.15 0.95 0.15
0.15 0.95 0.25
0.15 0.95 0.35
0.15 0.95 0.45
0.15 0.95 0.55
0.15 0.95 0.65
0.15 0.95 0.75
0.15 0.95 0.85
0.15 0.95 0.95
0.25 0.05 0.05
0.25 0.05 0.15
0.25 0.05 0.25
0.25 0.05 0.35
0.25 0.05 0.45
0.25 0.05 0.55
0.25 0.05 0.65
0.25 0.05 0.75
0.25 0.05 0.85
0.25 0.05 0.95
0.25 0.15 0.05
0.25 0.15 0.15
0.25 0.15 0.25
0.25 0.15 0.35
0.25 0.15 0.45
0.25 0.15 0.55
0.25 0.15 0.65
0.25 0.15 0.75
0.25 0.15 0.85
0.25 0.15 0.95
0.25 0.25 0.05
0.25 0.25 0.15
0.25 0.25 0.25
0.25 0.25 0.35
0.25 0.25 0.45
0.25 0.25 0.55
0.25 0.25 0.65
0.25 0.25 0.75
0.25 0.25 0.85
0.25 0.25 0.95
0.25 0.35 0.05
0.25 0.35 0.15
0.25 0.35 0.25
0.25 0.35 0.35
0.25 0.35 0.45
0.25 0.35 0.55
0.25 0.35 0.65
0.25 0.35 0.75
0.25 0.35 0.85
0.25 0.35 0.95
0.25 0.45 0.05
0.25 0.45 0.15
0.25 0.45 0.25
0.25 0.45 0.35
0.25 0.45 0.45
0.25 0.45 0.55
0.25 0.45 0.65
0.25 0.45 0.75
0.25 0.45 0.85
0.25 0.45 0.95
0.25 0.55 0.05
0.25 0.55 0.15
0.25 0.55 0.25
0.25 0.55 0.35
0.25 0.55 0.45
0.25 0.55 0.55
0.25 0.55 0.65
0.25 0.55 0.75
0.25 0.55 0.85
0.25 0.55 0.95
0.25 0.65 0.05
0.25 0.65 0.15
0.25 0.65 0.25
0.25 0.65 0.35
0.25 0.65 0.45
0.25 0.65 0.55
0.25 0.65 0.65
0.25 0.65 0.75
0.25 0.65 0.85
0.25 0.65 0.95
0.25 0.75 0.05
0.25 0.75 0.15
0.25 0.75 0.25
0.25 0.75 0.35
0.25 0.75 0.45
0.25 0.75 0.55
0.25 0.75 0.65
0.25 0.75 0.75
0.25 0.75 0.85
0.25 0.75 0.95
0.25 0.85 0.05
0.25 0.85 0.15
0.25 0.85 0.25
0.25 0.85 0.35
0.25 0.85 0.45
0.25 0.85 0.55
0.25 0.85 0.65
0.25 0.85 0.75
0.25 0.85 0.85
0.25 0.85 0.95
0.25 0.95 0.05
0.25 0.95 0.15
0.25 0.95 0.25
0.25 0.95 0.35
0.25 0.95 0.45
0.25 0.95 0.55
0.25 0.95 0.65
0.25 0.95 0.75
0.25 0.95 0.85
0.25 0.95 0.95
0.35 0.05 0.05
0.35 0.05 0.15
0.35 0.05 0.25
0.35 0.05 0.35
0.35 0.05 0.45
0.35 0.05 0.55
0.35 0.05 0.65
0.35 0.05 0.75
0.35 0.05 0.85
0.35 0.05 0.95
0.35 0.15 0.05
0.35 0.15 0.15
0.35 0.15 0.25
0.35 0.15 0.35
0.35 0.15 0.45
0.35 0.15 0.55
0.35 0.15 0.65
0.35 0.15 0.75
0.35 0.15 0.85
0.35 0.15 0.95
0.35 0.25 0.05
0.35 0.25 0.15
0.35 0.25 0.25
0.35 0.25 0.35
0.35 0.25 0.45
0.35 0.25 0.55
0.35 0.25 0.65
0.35 0.25 0.75
0.35 0.25 0.85
0.35 0.25 0.95
0.35 0.35 0.05
0.35 0.35 0.15
0.35 0.35 0.25
0.35 0.35 0.35
0.35 0.35 0.45
0.35 0.35 0.55
0.35 0.35 0.65
0.35 0.35 0.75
0.35 0.35 0.85
0.35 0.35 0.95
0.35 0.45 0.05
0.35 0.45 0.15
0.35 0.45 0.25
0.35 0.45 0.35
0.35 0.45 0.45
0.35 0.45 0.55
0.35 0.45 0.65
0.35 0.45 0.75
0.35 0.45 0.85
0.35 0.45 0.95
0.35 0.55 0.05
0.35 0.55 0.15
0.35 0.55 0.25
0.35 0.55 0.35
0.35 0.55 0.45
0.35 0.55 0.55
0.35 0.55 0.65
0.35 0.55 0.75
0.35 0.55 0.85
0.35 0.55 0.95
0.35 0.65 0.05
0.35 0.65 0.15
0.35 0.65 0.25
0.35 0.65 0.35
0.35 0.65 0.45
0.35 0.65 0.55
0.35 0.65 0.65
0.35 0.65 0.75
0.35 0.65 0.85
0.35 0.65 0.95
0.35 0.75 0.05
0.35 0.75 0.15
0.35 0.75 0.25
0.35 0.75 0.35
0.35 0.75 0.45
0.35 0.75 0.55
0.35 0.75 0.65
0.35 0.75 0.75
0.35 0.75 0.85
0.35 0.75 0.95
0.35 0.85 0.05
0.35 0.85 0.15
0.35 0.85 0.25
0.35 0.85 0.35
0.35 0.85 0.45
0.35 0.85 0.55
0.35 0.85 0.65
0.35 0.85 0.75
0.35 0.85 0.85
0.35 0.85 0.95
0.35 0.95 0.05
0.35 0.95 0.15
0.35 0.95 0.25
0.35 0.95 0.35
0.35 0.95 0.45
0.35 0.95 0.55
0.35 0.95 0.65
0.35 0.95 0.75
0.35 0.95 0.85
0.35 0.95 0.95
0.45 0.05 0.05
0.45 0.05 0.15
0.45 0.05 0.25
0.45 0.05 0.35
0.45 0.05 0.45
0.45 0.05 0.55
0.45 0.05 0.65
0.45 0.05 0.75
0.45 0.05 0.85
0.45 0.05 0.95
0.45 0.15 0.05
0.45 0.15 0.15
0.45 0.15 0.25
0.45 0.15 0.35
0.45 0.15 0.45
0.45 0.15 0.55
0.45 0.15 0.65
0.45 0.15 0.75
0.45 0.15 0.85
0.45 0.15 0.95
0.45 0.25 0.05
0.45 0.25 0.15
0.45 0.25 0.25
0.45 0.25 0.35
0.45 0.25 0.45
0.45 0.25 0.55
0.45 0.25 0.65
0.45 0.25 0.75
0.45 0.25 0.85
0.45 0.25 0.95
0.45 0.35 0.05
0.45 0.35 0.15
0.45 0.35 0.25
0.45 0.35 0.35
0.45 0.35 0.45
0.45 0.35 0.55
0.45 0.35 0.65
0.45 0.35 0.75
0.45 0.35 0.85
0.45 0.35 0.95
0.45 0.45 0.05
0.45 0.45 0.15
0.45 0.45 0.25
0.45 0.45 0.35
0.45 0.45 0.45
0.45 0.45 0.55
0.45 0.45 0.65
0.45 0.45 0.75
0.45 0.45 0.85
0.45 0.45 0.95
0.45 0.55 0.05
0.45 0.55 0.15
0.45 0.55 0.25
0.45 0.55 0.35
0.45 0.55 0.45
0.45 0.55 0.55
0.45 0.55 0.65
0.45 0.55 0.75
0.45 0.55 0.85
0.45 0.55 0.95
0.45 0.65 0.05
0.45 0.65 0.15
0.45 0.65 0.25
0.45 0.65 0.35
0.45 0.65 0.45
0.45 0.65 0.55
0.45 0.65 0.65
0.45 0.65 0.75
0.45 0.65 0.85
0.45 0.65 0.95
0.45 0.75 0.05
0.45 0.75 0.15
0.45 0.75 0.25
0.45 0.75 0.35
0.45 0.75 0.45
0.45 0.75 0.55
0.45 0.75 0.65
0.45 0.75 0.75
0.45 0.75 0.85
0.45 0.75 0.95
0.45 0.85 0.05
0.45 0.85 0.15
0.45 0.85 0.25
0.45 0.85 0.35
0.45 0.85 0.45
0.45 0.85 0.55
0.45 0.85 0.65
0.45 0.85 0.75
0.45 0.85 0.85
0.45 0.85 0.95
0.45 0.95 0.05
0.45 0.95 0.15
0.45 0.95 0.25
0.45 0.95 0.35
0.45 0.95 0.45
0.45 0.95 0.55
0.45 0.95 0.65
0.45 0.95 0.75
0.45 0.95 0.85
0.45 0.95 0.95
0.55 0.05 0.05
0.55 0.05 0.15
0.55 0.05 0.25
0.55 0.05 0.35
0.55 0.05 0.45
0.55 0.05 0.55
0.55 0.05 0.65
0.55 0.05 0.75
0.55 0.05 0.85
0.55 0.05 0.95
0.55 0.15 0.05
0.55 0.15 0.15
0.55 0.15 0.25
0.55 0.15 0.35
0.55 0.15 0.45
0.55 0.15 0.55
0.55 0.15 0.65
0.55 0.15 0.75
0.55 0.15 0.85
0.55 0.15 0.95
0.55 0.25 0.05
0.55 0.25 0.15
0.55 0.25 0.25
0.55 0.25 0.35
0.55 0.25 0.45
0.55 0.25 0.55
0.55 0.25 0.65
0.55 0.25 0.75
0.55 0.25 0.85
0.55 0.25 0.95
0.55 0.35 0.05
0.55 0.35 0.15
0.55 0.35 0.25
0.55 0.35 0.35
0.55 0.35 0.45
0.55 0.35 0.55
0.55 0.35 0.65
0.55 0.35 0.75
0.55 0.35 0.85
0.55 0.35 0.95
0.55 0.45 0.05
0.55 0.45 0.15
0.55 0.45 0.25
0.55 0.45 0.35
0.55 0.45 0.45
0.55 0.45 0.55
0.55 0.45 0.65
0.55 0.45 0.75
0.55 0.45 0.85
0.55 0.45 0.95
0.55 0.55 0.05
0.55 0.55 0.15
0.55 0.55 0.25
0.55 0.55 0.35
0.55 0.55 0.45
0.55 0.55 0.55
0.55 0.55 0.65
0.55 0.55 0.75
0.55 0.55 0.85
0.55 0.55 0.95
0.55 0.65 0.05
0.55 0.65 0.15
0.55 0.65 0.25
0.55 0.65 0.35
0.55 0.65 0.45
0.55 0.65 0.55
0.55 0.65 0.65
0.55 0.65 0.75
0.55 0.65 0.85
0.55 0.65 0.95
0.55 0.75 0.05
0.55 0.75 0.15
0.55 0.75 0.25
0.55 0.75 0.35
0.55 0.75 0.45
0.55 0.75 0.55
0.55 0.75 0.65
0.55 0.75 0.75
0.55 0.75 0.85
0.55 0.75 0.95
0.55 0.85 0.05
0.55 0.85 0.15
0.55 0.85 0.25
0.55 0.85 0.35
0.55 0.85 0.45
0.55 0.85 0.55
0.55 0.85 0.65
0.55 0.85 0.75
0.55 0.85 0.85
0.55 0.85 0.95
0.55 0.95 0.05
0.55 0.95 0.15
0.55 0.95 0.25
0.55 0.95 0.35
0.55 0.95 0.45
0.55 0.95 0.55
0.55 0.95 0.65
0.55 0.95 0.75
0.55 0.95 0.85
0.55 0.95 0.95
0.65 0.05 0.05
0.65 0.05 0.15
0.65 0.05 0.25
0.65 0.05 0.35
0.65 0.05 0.45
0.65 0.05 0.55
0.65 0.05 0.65
0.65 0.05 0.75
0.65 0.05 0.85
0.65 0.05 0.95
0.65 0.15 0.05
0.65 0.15 0.15
0.65 0.15 0.25
0.65 0.15 0.35
0.65 0.15 0.45
0.65 0.15 0.55
0.65 0.15 0.65
0.65 0.15 0.75
0.65 0.15 0.85
0.65 0.15 0.95
0.65 0.25 0.05
0.65 0.25 0.15
0.65 0.25 0.25
0.65 0.25 0.35
0.65 0.25 0.45
0.65 0.25 0.55
0.65 0.25 0.65
0.65 0.25 0.75
0.65 0.25 0.85
0.65 0.25 0.95
0.65 0.35 0.05
0.65 0.35 0.15
0.65 0.35 0.25
0.65 0.35 0.35
0.65 0.35 0.45
0.65 0.35 0.55
0.65 0.35 0.65
0.65 0.35 0.75
0.65 0.35 0.85
0.65 0.35 0.95
0.65 0.45 0.05
0.65 0.45 0.15
0.65 0.45 0.25
0.65 0.45 0.35
0.65 0.45 0.45
0.65 0.45 0.55
0.65 0.45 0.65
0.65 0.45 0.75
0.65 0.45 0.85
0.65 0.45 0.95
0.65 0.55 0.05
0.65 0.55 0.15
0.65 0.55 0.25
0.65 0.55 0.35
0.65 0.55 0.45
0.65 0.55 0.55
0.65 0.55 0.65
0.65 0.55 0.75
0.65 0.55 0.85
0.65 0.55 0.95
0.65 0.65 0.05
0.65 0.65 0.15
0.65 0.65 0.25
0.65 0.65 0.35
0.65 0.65 0.45
0.65 0.65 0.55
0.65 0.65 0.65
0.65 0.65 0.75
0.65 0.65 0.85
0.65 0.65 0.95
0.65 0.75 0.05
0.65 0.75 0.15
0.65 0.75 0.25
0.65 0.75 0.35
0.65 0.75 0.45
0.65 0.75 0.55
0.65 0.75 0.65
0.65 0.75 0.75
0.65 0.75 0.85
0.65 0.75 0.95
0.65 0.85 0.05
0.65 0.85 0.15
0.65 0.85 0.25
0.65 0.85 0.35
0.65 0.85 0.45
0.65 0.85 0.55
0.65 0.85 0.65
0.65 0.85 0.75
0.65 0.85 0.85
0.65 0.85 0.95
0.65 0.95 0.05
0.65 0.95 0.15
0.65 0.95 0.25
0.65 0.95 0.35
0.65 0.95 0.45
0.65 0.95 0.55
0.65 0.95 0.65
0.65 0.95 0.75
0.65 0.95 0.85
0.65 0.95 0.95
0.75 0.05 0.05
0.75 0.05 0.15
0.75 0.05 0.25
0.75 0.05 0.35
0.75 0.05 0.45
0.75 0.05 0.55
0.75 0.05 0.65
0.75 0.05 0.75
0.75 0.05 0.85
0.75 0.05 0.95
0.75 0.15 0.05
0.75 0.15 0.15
0.75 0.15 0.25
0.75 0.15 0.35
0.75 0.15 0.45
0.75 0.15 0.55
0.75 0.15 0.65
0.75 0.15 0.75
0.75 0.15 0.85
0.75 0.15 0.95
0.75 0.25 0.05
0.75 0.25 0.15
0.75 0.25 0.25
0.75 0.25 0.35
0.75 0.25 0.45
0.75 0.25 0.55
0.75 0.25 0.65
0.75 0.25 0.75
0.75 0.25 0.85
0.75 0.25 0.95
0.75 0.35 0.05
0.75 0.35 0.15
0.75 0.35 0.25
0.75 0.35 0.35
0.75 0.35 0.45
0.75 0.35 0.55
0.75 0.35 0.65
0.75 0.35 0.75
0.75 0.35 0.85
0.75 0.35 0.95
0.75 0.45 0.05
0.75 0.45 0.15
0.75 0.45 0.25
0.75 0.45 0.35
0.75 0.45 0.45
0.75 0.45 0.55
0.75 0.45 0.65
0.75 0.45 0.75
0.75 0.45 0.85
0.75 0.45 0.95
0.75 0.55 0.05
0.75 0.55 0.15
0.75 0.55 0.25
0.75 0.55 0.35
0.75 0.55 0.45
0.75 0.55 0.55
0.75 0.55 0.65
0.75 0.55 0.75
0.75 0.55 0.85
0.75 0.55 0.95
0.75 0.65 0.05
0.75 0.65 0.15
0.75 0.65 0.25
0.75 0.65 0.35
0.75 0.65 0.45
0.75 0.65 0.55
0.75 0.65 0.65
0.75 0.65 0.75
0.75 0.65 0.85
0.75 0.65 0.95
0.75 0.75 0.05
0.75 0.75 0.15
0.75 0.75 0.25
0.75 0.75 0.35
0.75 0.75 0.45
0.75 0.75 0.55
0.75 0.75 0.65
0.75 0.75 0.75
0.75 0.75 0.85
0.75 0.75 0.95
0.75 0.85 0.05
0.75 0.85 0.15
0.75 0.85 0.25
0.75 0.85 0.35
0.75 0.85 0.45
0.75 0.85 0.55
0.75 0.85 0.65
0.75 0.85 0.75
0.75 0.85 0.85
0.75 0.85 0.95
0.75 0.95 0.05
0.75 0.95 0.15
0.75 0.95 0.25
0.75 0.95 0.35
0.75 0.95 0.45
0.75 0.95 0.55
0.75 0.95 0.65
0.75 0.95 0.75
0.75 0.95 0.85
0.75 0.95 0.95
0.85 0.05 0.05
0.85 0.05 0.15
0.85 0.05 0.25
0.85 0.05 0.35
0.85 0.05 0.45
0.85 0.05 0.55
0.85 0.05 0.65
0.85 0.05 0.75
0.85 0.05 0.85
0.85 0.05 0.95
0.85 0.15 0.05
0.85 0.15 0.15
0.85 0.15 0.25
0.85 0.15 0.35
0.85 0.15 0.45
0.85 0.15 0.55
0.85 0.15 0.65
0.85 0.15 0.75
0.85 0.15 0.85
0.85 0.15 0.95
0.85 0.25 0.05
0.85 0.25 0.15
0.85 0.25 0.25
0.85 0.25 0.35
0.85 0.25 0.45
0.85 0.25 0.55
0.85 0.25 0.65
0.85 0.25 0.75
0.85 0.25 0.85
0.85 0.25 0.95
0.85 0.35 0.05
0.85 0.35 0.15
0.85 0.35 0.25
0.85 0.35 0.35
0.85 0.35 0.45
0.85 0.35 0.55
0.85 0.35 0.65
0.85 0.35 0.75
0.85 0.35 0.85
0.85 0.35 0.95
0.85 0.45 0.05
0.85 0.45 0.15
0.85 0.45 0.25
0.85 0.45 0.35
0.85 0.45 0.45
0.85 0.45 0.55
0.85 0.45 0.65
0.85 0.45 0.75
0.85 0.45 0.85
0.85 0.45 0.95
0.85 0.55 0.05
0.85 0.55 0.15
0.85 0.55 0.25
0.85 0.55 0.35
0.85 0.55 0.45
0.85 0.55 0.55
0.85 0.55 0.65
0.85 0.55 0.75
0.85 0.55 0.85
0.85 0.55 0.95
0.85 0.65 0.05
0.85 0.65 0.15
0.85 0.65 0.25
0.85 0.65 0.35
0.85 0.65 0.45
0.85 0.65 0.55
0.85 0.65 0.65
0.85 0.65 0.75
0.85 0.65 0.85
0.85 0.65 0.95
0.85 0.75 0.05
0.85 0.75 0.15
0.85 0.75 0.25
0.85 0.75 0.35
0.85 0.75 0.45
0.85 0.75 0.55
0.85 0.75 0.65
0.85 0.75 0.75
0.85 0.75 0.85
0.85 0.75 0.95
0.85 0.85 0.05
0.85 0.85 0.15
0.85 0.85 0.25
0.85 0.85 0.35
0.85 0.85 0.45
0.85 0.85 0.55
0.85 0.85 0.65
0.85 0.85 0.75
0.85 0.85 0.85
0.85 0.85 0.95
0.85 0.95 0.05
0.85 0.95 0.15
0.85 0.95 0.25
0.85 0.95 0.35
0.85 0.95 0.45
0.85 0.95 0.55
0.85 0.95 0.65
0.85 0.95 0.75
0.85 0.95 0.85
0.85 0.95 0.95
0.95 0.05 0.05
0.95 0.05 0.15
0.95 0.05 0.25
0.95 0.05 0.35
0.95 0.05 0.45
0.95 0.05 0.55
0.95 0.05 0.65
0.95 0.05 0.75
0.95 0.05 0.85
0.95 0.05 0.95
0.95 0.15 0.05
0.95 0.15 0.15
0.95 0.15 0.25
0.95 0.15 0.35
0.95 0.15 0.45
0.95 0.15 0.55
0.95 0.15 0.65
0.95 0.15 0.75
0.95 0.15 0.85
0.95 0.15 0.95
0.95 0.25 0.05
0.95 0.25 0.15
0.95 0.25 0.25
0.95 0.25 0.35
0.95 0.25 0.45
0.95 0.25 0.55
0.95 0.25 0.65
0.95 0.25 0.75
0.95 0.25 0.85
0.95 0.25 0.95
0.95 0.35 0.05
0.95 0.35 0.15
0.95 0.35 0.25
0.95 0.35 0.35
0.95 0.35 0.45
0.95 0.35 0.55
0.95 0.35 0.65
0.95 0.35 0.75
0.95 0.35 0.85
0.95 0.35 0.95
0.95 0.45 0.05
0.95 0.45 0.15
0.95 0.45 0.25
0.95 0.45 0.35
0.95 0.45 0.45
0.95 0.45 0.55
0.95 0.45 0.65
0.95 0.45 0.75
0.95 0.45 0.85
0.95 0.45 0.95
0.95 0.55 0.05
0.95 0.55 0.15
0.95 0.55 0.25
0.95 0.55 0.35
0.95 0.55 0.45
0.95 0.55 0.55
0.95 0.55 0.65
0.95 0.55 0.75
0.95 0.55 0.85
0.95 0.55 0.95
0.95 0.65 0.05
0.95 0.65 0.15
0.95 0.65 0.25
0.95 0.65 0.35
0.95 0.65 0.45
0.95 0.65 0.55
0.95 0.65 0.65
0.95 0.65 0.75
0.95 0.65 0.85
0.95 0.65 0.95
0.95 0.75 0.05
0.95 0.75 0.15
0.95 0.75 0.25
0.95 0.75 0.35
0.95 0.75 0.45
0.95 0.75 0.55
0.95 0.75 0.65
0.95 0.75 0.75
0.95 0.75 0.85
0.95 0.75 0.95
0.95 0.85 0.05
0.95 0.85 0.15
0.95 0.85 0.25
0.95 0.85 0.35
0.95 0.85 0.45
0.95 0.85 0.55
0.95 0.85 0.65
0.95 0.85 0.75
0.95 0.85 0.85
0.95 0.85 0.95
0.95 0.95 0.05
0.95 0.95 0.15
0.95 0.95 0.25
0.95 0.95 0.35
0.95 0.95 0.45
0.95 0.95 0.55
0.95 0.95 0.65
0.95 0.95 0.75
0.95 0.95 0.85
0.95 0.95 0.95
POINT_DATA 1000
SCALARS P float 1
LOOKUP_TABLE default
-0.000260875
-0.689206
-1.33972
-1.80397
-2.04239
-2.04246
-1.80421
-1.3402
-0.690139
-0.00224534
-0.689206
-1.65079
-2.50861
-3.09462
-3.38805
-3.38811
-3.09483
-2.509
-1.65142
-0.69015
-1.33972
-2.50861
-3.5602
-4.27568
-4.63175
-4.6318
-4.27583
-3.56048
-2.50902
-1.34024
-1.80397
-3.09462
-4.27568
-5.08535
-5.48923
-5.48926
-5.08546
-4.27587
-3.09489
-1.80428
-2.04239
-3.38805
-4.63175
-5.48923
-5.91803
-5.91806
-5.48931
-4.63188
-3.38823
-2.04259
-2.04246
-3.38811
-4.6318
-5.48926
-5.91806
-5.91808
-5.48932
-4.6319
-3.38824
-2.0426
-1.80421
-3.09483
-4.27583
-5.08546
-5.48931
-5.48932
-5.08551
-4.2759
-3.09492
-1.8043
-1.3402
-2.509
-3.56048
-4.27587
-4.63188
-4.6319
-4.2759
-3.56053
-2.50906
-1.34028
-0.690139
-1.65142
-2.50902
-3.09489
-3.38823
-3.38824
-3.09492
-2.50906
-1.65147
-0.690196
-0.00224534
-0.69015
-1.34024
-1.80428
-2.04259
-2.0426
-1.8043
-1.34028
-0.690196
-0.0022962
2.46516
2.31798
2.01617
1.73428
1.57275
1.57268
1.73408
2.01579
2.31735
2.46421
2.31798
2.13318
1.75965
1.4172
1.22343
1.22337
1.41702
1.75933
2.1327
2.31734
2.01617
1.75965
1.29224
0.874042
0.639897
0.639851
0.873902
1.292
1.75931
2.01575
1.73428
1.4172
0.874042
0.394569
0.127435
0.1274
0.394465
0.873869
1.41696
1.73401
1.57275
1.22343
0.639897
0.127435
-0.157612
-0.157638
0.127358
0.639774
1.22326
1.57256
1.57268
1.22337
0.639851
0.1274
-0.157638
-0.157657
0.127345
0.639763
1.22326
1.57256
1.73408
1.41702
0.873902
0.394465
0.127358
0.127345
0.394424
0.873838
1.41694
1.73399
2.01579
1.75933
1.292
0.873869
0.639774
0.639763
0.873838
1.29195
1.75927
2.01572
2.31735
2.1327
1.75931
1.41696
1.22326
1.22326
1.41694
1.75927
2.13265
2.31729
2.46421
2.31734
2.01575
1.73401
1.57256
1.57256
1.73399
2.01572
2.31729
2.46416
3.71489
3.74674
3.6696
3.55191
3.47218
3.47213
3.55175
3.66932
3.74634
3.71437
3.74674
3.82156
3.75034
3.62004
3.52943
3.52939
3.6199
3.7501
3.82122
3.74633
3.6696
3.75034
3.66161
3.5057
3.39813
3.39809
3.50558
3.66142
3.75008
3.66929
3.55191
3.62004
3.5057
3.32344
3.19991
3.19988
3.32335
3.50555
3.61985
3.55169
3.47218
3.52943
3.39813
3.19991
3.06699
3.06697
3.19984
3.39803
3.5293
3.47202
3.47213
3.52939
3.39809
3.19988
3.06697
3.06696
3.19983
3.39802
3.52929
3.47202
3.55175
3.6199
3.50558
3.32335
3.19984
3.19983
3.32331
3.50552
3.61983
3.55167
3.66932
3.7501
3.66142
3.50555
3.39803
3.39802
3.50552
3.66138
3.75004
3.66926
3.74634
3.82122
3.75008
3.61985
3.5293
3.52929
3.61983
3.75004
3.82117
3.74628
3.71437
3.74633
3.66929
3.55169
3.47202
3.47202
3.55167
3.66926
3.74628
3.71432
4.54798
4.60119
4.60685
4.57579
4.54731
4.54727
4.57567
4.60665
4.60093
4.54767
4.60119
4.69553
4.72377
4.69813
4.66905
4.66902
4.69802
4.7236
4.69529
4.60092
4.60685
4.72377
4.76204
4.73486
4.70201
4.70198
4.73477
4.7619
4.72358
4.60663
4.57579
4.69813
4.73486
4.70135
4.66341
4.66338
4.70128
4.73474
4.69798
4.57562
4.54731
4.66905
4.70201
4.66341
4.62198
4.62196
4.66335
4.70193
4.66894
4.54719
4.54727
4.66902
4.70198
4.66338
4.62196
4.62195
4.66334
4.70192
4.66893
4.54718
4.57567
4.69802
4.73477
4.70128
4.66335
4.66334
4.70125
4.73472
4.69796
4.5756
4.60665
4.7236
4.7619
4.73474
4.70193
4.70192
4.73472
4.76186
4.72355
4.6066
4.60093
4.69529
4.72358
4.69798
4.66894
4.66893
4.69796
4.72355
4.69525
4.60088
4.54767
4.60092
4.60663
4.57562
4.54719
4.54718
4.5756
4.6066
4.60088
4.54762
5.17469
5.1965
5.20624
5.20267
5.19673
5.1967
5.20258
5.20611
5.19632
5.17448
5.1965
5.23344
5.25328
5.25356
5.24845
5.24843
5.25349
5.25315
5.23328
5.19631
5.20624
5.25328
5.27966
5.28182
5.27662
5.2766
5.28175
5.27955
5.25314
5.20609
5.20267
5.25356
5.28182
5.28362
5.27758
5.27757
5.28356
5.28173
5.25345
5.20254
5.19673
5.24845
5.27662
5.27758
5.27082
5.27081
5.27754
5.27656
5.24836
5.19663
5.1967
5.24843
5.2766
5.27757
5.27081
5.27079
5.27753
5.27655
5.24836
5.19662
5.20258
5.25349
5.28175
5.28356
5.27754
5.27753
5.28353
5.28171
5.25343
5.20252
5.20611
5.25315
5.27955
5.28173
5.27656
5.27655
5.28171
5.27952
5.25311
5.20606
5.19632
5.23328
5.25314
5.25345
5.24836
5.24836
5.25343
5.25311
5.23324
5.19628
5.17448
5.19631
5.20609
5.20254
5.19663
5.19662
5.20252
5.20606
5.19628
5.17445
5.73463
5.71267
5.70273
5.70614
5.71196
5.71194
5.70608
5.70264
5.71255
5.7345
5.71267
5.67553
5.65547
5.65498
5.65997
5.65995
5.65493
5.65538
5.67542
5.71254
5.70273
5.65547
5.62881
5.62643
5.63149
5.63147
5.62638
5.62873
5.65537
5.70262
5.70614
5.65498
5.62643
5.62439
5.63029
5.63027
5.62435
5.62636
5.6549
5.70604
5.71196
5.65997
5.63149
5.63029
5.63691
5.6369
5.63025
5.63143
5.6599
5.71188
5.71194
5.65995
5.63147
5.63027
5.6369
5.63689
5.63024
5.63143
5.6599
5.71188
5.70608
5.65493
5.62638
5.62435
5.63025
5.63024
5.62433
5.62635
5.65488
5.70603
5.70264
5.65538
5.62873
5.62636
5.63143
5.63143
5.62635
5.6287
5.65534
5.7026
5.71255
5.67542
5.65537
5.6549
5.6599
5.6599
5.65488
5.65534
5.67539
5.71251
5.7345
5.71254
5.70262
5.70604
5.71188
5.71188
5.70603
5.7026
5.71251
5.73446
6.36168
6.30831
6.30246
6.33336
6.36173
6.36171
6.33331
6.30239
6.30822
6.36158
6.30831
6.21377
6.18531
6.21078
6.23974
6.23972
6.21074
6.18524
6.21369
6.30822
6.30246
6.18531
6.14679
6.17378
6.20651
6.2065
6.17375
6.14673
6.18523
6.30238
6.33336
6.21078
6.17378
6.20709
6.24492
6.24491
6.20706
6.17373
6.21071
6.33328
6.36173
6.23974
6.20651
6.24492
6.28623
6.28622
6.24489
6.20647
6.23968
6.36167
6.36171
6.23972
6.2065
6.24491
6.28622
6.28622
6.24489
6.20646
6.23968
6.36166
6.33331
6.21074
6.17375
6.20706
6.24489
6.24489
6.20704
6.17372
6.2107
6.33327
6.30239
6.18524
6.14673
6.17373
6.20647
6.20646
6.17372
6.14671
6.18521
6.30236
6.30822
6.21369
6.18523
6.21071
6.23968
6.23968
6.2107
6.18521
6.21366
6.30819
6.36158
6.30822
6.30238
6.33328
6.36167
6.36166
6.33327
6.30236
6.30819
6.36155
7.19551
7.16346
7.24042
7.35798
7.43761
7.4376
7.35795
7.24037
7.1634
7.19544
7.16346
7.08845
7.15949
7.28966
7.38018
7.38017
7.28963
7.15944
7.08839
7.16339
7.24042
7.15949
7.24805
7.40385
7.51134
7.51133
7.40382
7.24801
7.15943
7.24036
7.35798
7.28966
7.40385
7.58601
7.70948
7.70947
7.58599
7.40381
7.28961
7.35793
7.43761
7.38018
7.51134
7.70948
7.84234
7.84233
7.70946
7.51131
7.38014
7.43757
7.4376
7.38017
7.51133
7.70947
7.84233
7.84232
7.70945
7.5113
7.38013
7.43756
7.35795
7.28963
7.40382
7.58599
7.70946
7.70945
7.58597
7.4038
7.2896
7.35791
7.24037
7.15944
7.24801
7.40381
7.51131
7.5113
7.4038
7.24798
7.15941
7.24034
7.1634
7.08839
7.15943
7.28961
7.38014
7.38013
7.2896
7.15941
7.08836
7.16337
7.19544
7.16339
7.24036
7.35793
7.43757
7.43756
7.35791
7.24034
7.16337
7.19541
8.44656
8.59344
8.89508
9.17688
9.33834
9.33834
9.17685
8.89504
8.59339
8.4465
8.59344
8.77811
9.15157
9.49399
9.68771
9.68771
9.49396
9.15153
8.77806
8.59339
8.89508
9.15157
9.61901
10.0372
10.2714
10.2713
10.0372
9.61897
9.15153
8.89503
9.17688
9.49399
10.0372
10.5168
10.7839
10.7839
10.5167
10.0372
9.49395
9.17683
9.33834
9.68771
10.2714
10.7839
11.069
11.069
10.7839
10.2713
9.68768
9.3383
9.33834
9.68771
10.2713
10.7839
11.069
11.069
10.7839
10.2713
9.68767
9.3383
9.17685
9.49396
10.0372
10.5167
10.7839
10.7839
10.5167
10.0372
9.49393
9.17682
8.89504
9.15153
9.61897
10.0372
10.2713
10.2713
10.0372
9.61895
9.15151
8.89502
8.59339
8.77806
9.15153
9.49395
9.68768
9.68767
9.49393
9.15151
8.77804
8.59337
8.4465
8.59339
8.89503
9.17683
9.3383
9.3383
9.17682
8.89502
8.59337
8.44648
10.9146
11.6028
12.2532
12.7174
12.9557
12.9557
12.7173
12.2531
11.6028
10.9146
11.6028
12.5645
13.4225
14.0085
14.3019
14.3019
14.0085
13.4224
12.5645
11.6028
12.2532
13.4225
14.4743
15.19
15.5461
15.5461
15.19
14.4743
13.4224
12.2531
12.7174
14.0085
15.19
15.9999
16.4038
16.4038
15.9999
15.19
14.0085
12.7173
12.9557
14.3019
15.5461
16.4038
16.8328
16.8328
16.4038
15.5461
14.3019
12.9557
12.9557
14.3019
15.5461
16.4038
16.8328
16.8327
16.4038
15.5461
14.3019
12.9557
12.7173
14.0085
15.19
15.9999
16.4038
16.4038
15.9999
15.1899
14.0085
12.7173
12.2531
13.4224
14.4743
15.19
15.5461
15.5461
15.1899
14.4743
13.4224
12.2531
11.6028
12.5645
13.4224
14.0085
14.3019
14.3019
14.0085
13.4224
12.5645
11.6028
10.9146
11.6028
12.2531
12.7173
12.9557
12.9557
12.7173
12.2531
11.6028
10.9146
VECTORS velocity float
0.31262 0.344472 0.344472
0.538425 0.480791 0.669728
0.508683 0.584448 0.55738
0.467583 0.64533 0.351334
0.44634 0.672832 0.119247
0.446335 0.672827 -0.119089
0.467564 0.645311 -0.351128
0.508632 0.584397 -0.557035
0.538273 0.48064 -0.668979
0.3121 0.343952 -0.343947
0.538425 0.669728 0.480791
1.10375 0.909704 0.909704
1.19456 1.11024 0.721918
1.2011 1.23586 0.439718
1.19766 1.29468 0.146745
1.19766 1.29467 -0.14661
1.20108 1.23581 -0.439558
1.19453 1.11014 -0.721706
1.10368 0.909441 -0.909424
0.538273 0.668997 -0.480634
0.508683 0.55738 0.584448
1.19456 0.721918 1.11024
1.33612 0.883531 0.883531
1.36539 0.995362 0.535773
1.37112 1.05059 0.178063
1.37112 1.05058 -0.177959
1.36538 0.995317 -0.535661
1.3361 0.883435 -0.883406
1.19453 0.721736 -1.11012
0.508631 0.557066 -0.584391
0.467583 0.351334 0.64533
1.2011 0.439718 1.23586
1.36539 0.535773 0.995362
1.40579 0.606776 0.606776
1.41626 0.64314 0.201958
1.41625 0.643128 -0.201881
1.40579 0.606738 -0.606698
1.36538 0.535702 -0.995287
1.20108 0.439603 -1.23579
0.467561 0.351175 -0.645304
0.44634 0.119247 0.672832
1.19766 0.146745 1.29468
1.37112 0.178063 1.05059
1.41626 0.201958 0.64314
1.42877 0.214415 0.214415
1.42877 0.214406 -0.21436
1.41625 0.20193 -0.643086
1.37112 0.178014 -1.05054
1.19765 0.146673 -1.29465
0.44633 0.119158 -0.672819
0.446335 -0.119089 0.672827
1.19766 -0.14661 1.29467
1.37112 -0.177959 1.05058
1.41625 -0.201881 0.643128
1.42877 -0.21436 0.214406
1.42877 -0.214367 -0.214367
1.41625 -0.201901 -0.643091
1.37112 -0.177992 -1.05054
1.19765 -0.146655 -1.29465
0.44633 -0.119143 -0.672819
0.467564 -0.351128 0.645311
1.20108 -0.439558 1.23581
1.36538 -0.535661 0.995317
1.40579 -0.606698 0.606738
1.41625 -0.643086 0.20193
1.41625 -0.643091 -0.201901
1.40579 -0.606712 -0.606712
1.36538 -0.535682 -0.995295
1.20108 -0.439587 -1.2358
0.467561 -0.351161 -0.645306
0.508632 -0.557035 0.584397
1.19453 -0.721706 1.11014
1.3361 -0.883406 0.883435
1.36538 -0.995287 0.535702
1.37112 -1.05054 0.178014
1.37112 -1.05054 -0.177992
1.36538 -0.995295 -0.535682
1.3361 -0.883419 -0.883419
1.19453 -0.721723 -1.11013
0.50863 -0.557054 -0.584393
0.538273 -0.668979 0.48064
1.10368 -0.909424 0.909441
1.19453 -1.11012 0.721736
1.20108 -1.23579 0.439603
1.19765 -1.29465 0.146673
1.19765 -1.29465 -0.146655
1.20108 -1.2358 -0.439587
1.19453 -1.11013 -0.721723
1.10368 -0.909433 -0.909433
0.538272 -0.66899 -0.480637
0.3121 -0.343947 0.343952
0.538273 -0.480634 0.668997
0.508631 -0.584391 0.557066
0.467561 -0.645304 0.351175
0.44633 -0.672819 0.119158
0.44633 -0.672819 -0.119143
0.467561 -0.645306 -0.351161
0.50863 -0.584393 -0.557054
0.538272 -0.480637 -0.66899
0.312099 -0.34395 -0.34395
-0.52194 0.0735897 0.0735897
-0.0928656 0.0923998 0.224493
-0.100934 0.12826 0.291847
-0.163203 0.158543 0.221711
-0.201248 0.174661 0.0807998
-0.201259 0.174658 -0.080665
-0.163246 0.158529 -0.221552
-0.101039 0.128227 -0.291635
-0.0931287 0.0923264 -0.224212
-0.522672 0.0734381 -0.0734326
-0.0928656 0.224493 0.0923998
1.01878 0.279163 0.279163
1.29921 0.361967 0.35799
1.3635 0.430121 0.268113
1.37507 0.466426 0.0969144
1.37506 0.466417 -0.0967973
1.36346 0.430088 -0.267983
1.29914 0.361895 -0.357837
1.01864 0.279018 -0.279001
-0.0931296 0.224229 -0.0923208
-0.100934 0.291847 0.12826
1.29921 0.35799 0.361967
1.72145 0.442805 0.442805
1.85464 0.511314 0.326171
1.89483 0.547996 0.117095
1.89482 0.547985 -0.117003
1.85462 0.511278 -0.326074
1.72141 0.442733 -0.442705
1.29913 0.357866 -0.361878
-0.101042 0.291664 -0.128221
-0.163203 0.221711 0.158543
1.3635 0.268113 0.430121
1.85464 0.326171 0.511314
2.02392 0.373304 0.373304
2.07977 0.398755 0.133585
2.07976 0.398745 -0.133515
2.02391 0.373272 -0.373235
1.85461 0.326112 -0.51125
1.36346 0.268024 -0.43007
-0.163252 0.221595 -0.158523
-0.201248 0.0807998 0.174661
1.37507 0.0969144 0.466426
1.89483 0.117095 0.547996
2.07977 0.133585 0.398755
2.14257 0.142536 0.142536
2.14256 0.142528 -0.142485
2.07976 0.13356 -0.398706
1.89481 0.117053 -0.547953
1.37505 0.0968541 -0.466395
-0.201272 0.0807267 -0.17465
-0.201259 -0.080665 0.174658
1.37506 -0.0967973 0.466417
1.89482 -0.117003 0.547985
2.07976 -0.133515 0.398745
2.14256 -0.142485 0.142528
2.14256 -0.142491 -0.142491
2.07976 -0.133533 -0.39871
1.89481 -0.117032 -0.547956
1.37505 -0.0968372 -0.466397
-0.201272 -0.0807116 -0.17465
-0.163246 -0.221552 0.158529
1.36346 -0.267983 0.430088
1.85462 -0.326074 0.511278
2.02391 -0.373235 0.373272
2.07976 -0.398706 0.13356
2.07976 -0.39871 -0.133533
2.02391 -0.373247 -0.373247
1.85461 -0.326093 -0.511257
1.36346 -0.268009 -0.430075
-0.163253 -0.221582 -0.158524
-0.101039 -0.291635 0.128227
1.29914 -0.357837 0.361895
1.72141 -0.442705 0.442733
1.85461 -0.51125 0.326112
1.89481 -0.547953 0.117053
1.89481 -0.547956 -0.117032
1.85461 -0.511257 -0.326093
1.7214 -0.442717 -0.442717
1.29913 -0.357853 -0.361885
-0.101043 -0.291653 -0.128223
-0.0931287 -0.224212 0.0923264
1.01864 -0.279001 0.279018
1.29913 -0.361878 0.357866
1.36346 -0.43007 0.268024
1.37505 -0.466395 0.0968541
1.37505 -0.466397 -0.0968372
1.36346 -0.430075 -0.268009
1.29913 -0.361885 -0.357853
1.01863 -0.27901 -0.27901
-0.0931317 -0.224222 -0.0923236
-0.522672 -0.0734326 0.0734381
-0.0931296 -0.0923208 0.224229
-0.101042 -0.128221 0.291664
-0.163252 -0.158523 0.221595
-0.201272 -0.17465 0.0807267
-0.201272 -0.17465 -0.0807116
-0.163253 -0.158524 -0.221582
-0.101043 -0.128223 -0.291653
-0.0931317 -0.0923236 -0.224222
-0.522674 -0.0734357 -0.0734357
-0.637269 -0.0159261 -0.0159261
-0.279674 -0.0374065 0.0226467
-0.199139 -0.0403698 0.0974183
-0.208523 -0.0340669 0.0987082
-0.226713 -0.0286267 0.0398882
-0.226726 -0.0286293 -0.039784
-0.208568 -0.0340757 -0.0985957
-0.199234 -0.040388 -0.0972936
-0.279856 -0.0374398 -0.022524
-0.637583 -0.0159784 0.0159834
-0.279674 0.0226467 -0.0374065
0.684019 -0.00179704 -0.00179704
1.09502 0.00399208 0.100758
1.25341 0.0231049 0.110451
1.30583 0.0370246 0.0453257
1.30582 0.037018 -0.045233
1.25337 0.0230831 -0.110354
1.09495 0.00394903 -0.100658
0.683894 -0.00187068 0.0018857
-0.279857 0.0225391 0.0374448
-0.199139 0.0974183 -0.0403698
1.09502 0.100758 0.00399208
1.70347 0.12232 0.12232
1.96872 0.148301 0.131741
2.06771 0.164764 0.0538014
2.0677 0.164756 -0.0537255
1.96869 0.148275 -0.131665
1.70342 0.122272 -0.122247
1.09495 0.100683 -0.00393391
-0.199238 0.0973193 0.0403931
-0.208523 0.0987082 -0.0340669
1.25341 0.110451 0.0231049
1.96872 0.131741 0.148301
2.29499 0.152895 0.152895
2.42143 0.165568 0.0617806
2.42142 0.165561 -0.0617219
2.29497 0.152871 -0.152838
1.96869 0.131699 -0.14825
1.25336 0.11039 -0.0230671
-0.208577 0.098633 0.0340812
-0.226713 0.0398882 -0.0286267
1.30583 0.0453257 0.0370246
2.06771 0.0538014 0.164764
2.42143 0.0617806 0.165568